# LAMMPS data file 

80 atoms
79 bonds
144 angles

5 atom types
5 bond types
8 angle types
14 dihedral types

-20.0 20.0 xlo xhi
-20.0 20.0 ylo yhi
-20.0 20.0 zlo zhi

Atoms

1 1 1 0.05 17.2 20.0 20.0 
2 1 3 0.09 17.2 19.9 20.0 
3 1 3 0.09 17.2 20.1 20.0 
4 1 4 -0.65 17.06 20.0 20.0 
5 1 5 0.42 17.06 19.9 20.0 
6 1 1 -0.01 17.34 20.0 20.0 
7 1 3 0.09 17.34 20.1 20.0 
8 1 3 0.09 17.34 19.9 20.0 
9 1 2 -0.34 17.48 20.0 20.0 
10 1 1 -0.01 17.62 20.0 20.0 
11 1 3 0.09 17.62 20.1 20.0 
12 1 3 0.09 17.62 19.9 20.0 
13 1 1 -0.01 17.9 20.0 20.0 
14 1 3 0.09 17.9 20.1 20.0 
15 1 3 0.09 17.9 19.9 20.0 
16 1 2 -0.34 18.04 20.0 20.0 
17 1 1 -0.01 18.18 20.0 20.0 
18 1 3 0.09 18.18 20.1 20.0 
19 1 3 0.09 18.18 19.9 20.0 
20 1 1 -0.01 18.46 20.0 20.0 
21 1 3 0.09 18.46 20.1 20.0 
22 1 3 0.09 18.46 19.9 20.0 
23 1 2 -0.34 18.6 20.0 20.0 
24 1 1 -0.01 18.74 20.0 20.0 
25 1 3 0.09 18.74 20.1 20.0 
26 1 3 0.09 18.74 19.9 20.0 
27 1 1 -0.01 19.02 20.0 20.0 
28 1 3 0.09 19.02 20.1 20.0 
29 1 3 0.09 19.02 19.9 20.0 
30 1 2 -0.34 19.16 20.0 20.0 
31 1 1 -0.01 19.3 20.0 20.0 
32 1 3 0.09 19.3 20.1 20.0 
33 1 3 0.09 19.3 19.9 20.0 
34 1 1 -0.01 19.58 20.0 20.0 
35 1 3 0.09 19.58 20.1 20.0 
36 1 3 0.09 19.58 19.9 20.0 
37 1 2 -0.34 19.72 20.0 20.0 
38 1 1 -0.01 19.86 20.0 20.0 
39 1 3 0.09 19.86 20.1 20.0 
40 1 3 0.09 19.86 19.9 20.0 
41 1 1 -0.01 20.14 20.0 20.0 
42 1 3 0.09 20.14 20.1 20.0 
43 1 3 0.09 20.14 19.9 20.0 
44 1 2 -0.34 20.28 20.0 20.0 
45 1 1 -0.01 20.42 20.0 20.0 
46 1 3 0.09 20.42 20.1 20.0 
47 1 3 0.09 20.42 19.9 20.0 
48 1 1 -0.01 20.7 20.0 20.0 
49 1 3 0.09 20.7 20.1 20.0 
50 1 3 0.09 20.7 19.9 20.0 
51 1 2 -0.34 20.84 20.0 20.0 
52 1 1 -0.01 20.98 20.0 20.0 
53 1 3 0.09 20.98 20.1 20.0 
54 1 3 0.09 20.98 19.9 20.0 
55 1 1 -0.01 21.259999999999998 20.0 20.0 
56 1 3 0.09 21.259999999999998 20.1 20.0 
57 1 3 0.09 21.259999999999998 19.9 20.0 
58 1 2 -0.34 21.4 20.0 20.0 
59 1 1 -0.01 21.54 20.0 20.0 
60 1 3 0.09 21.54 20.1 20.0 
61 1 3 0.09 21.54 19.9 20.0 
62 1 1 -0.01 21.82 20.0 20.0 
63 1 3 0.09 21.82 20.1 20.0 
64 1 3 0.09 21.82 19.9 20.0 
65 1 2 -0.34 21.96 20.0 20.0 
66 1 1 -0.01 22.1 20.0 20.0 
67 1 3 0.09 22.1 20.1 20.0 
68 1 3 0.09 22.1 19.9 20.0 
69 1 1 -0.01 22.380000000000003 20.0 20.0 
70 1 3 0.09 22.380000000000003 20.1 20.0 
71 1 3 0.09 22.380000000000003 19.9 20.0 
72 1 2 -0.34 22.52 20.0 20.0 
73 1 1 -0.01 22.66 20.0 20.0 
74 1 3 0.09 22.66 20.1 20.0 
75 1 3 0.09 22.66 19.9 20.0 
76 1 1 0.05 22.8 20.0 20.0 
77 1 3 0.09 22.8 20.1 20.0 
78 1 3 0.09 22.8 19.9 20.0 
79 1 4 -0.65 22.94 20.0 20.0 
80 1 5 0.42 22.94 20.1 20.0 

Bonds

1 1 1 6 
2 1 10 13 
3 1 17 20 
4 1 24 27 
5 1 31 34 
6 1 38 41 
7 1 45 48 
8 1 52 55 
9 1 59 62 
10 1 66 69 
11 1 73 76 
12 4 1 4 
13 3 6 9 
14 3 9 10 
15 3 13 16 
16 3 16 17 
17 3 20 23 
18 3 23 24 
19 3 27 30 
20 3 30 31 
21 3 34 37 
22 3 37 38 
23 3 41 44 
24 3 44 45 
25 3 48 51 
26 3 51 52 
27 3 55 58 
28 3 58 59 
29 3 62 65 
30 3 65 66 
31 3 69 72 
32 3 72 73 
33 4 76 79 
34 3 1 2 
35 3 1 3 
36 3 6 7 
37 3 6 8 
38 3 10 11 
39 3 10 12 
40 3 13 14 
41 3 13 15 
42 3 17 18 
43 3 17 19 
44 3 20 21 
45 3 20 22 
46 3 24 25 
47 3 24 26 
48 3 27 28 
49 3 27 29 
50 3 31 32 
51 3 31 33 
52 3 34 35 
53 3 34 36 
54 3 38 39 
55 3 38 40 
56 3 41 42 
57 3 41 43 
58 3 45 46 
59 3 45 47 
60 3 48 49 
61 3 48 50 
62 3 52 53 
63 3 52 54 
64 3 55 56 
65 3 55 57 
66 3 59 60 
67 3 59 61 
68 3 62 63 
69 3 62 64 
70 3 66 67 
71 3 66 68 
72 3 69 70 
73 3 69 71 
74 3 73 74 
75 3 73 75 
76 3 76 77 
77 3 76 78 
78 5 4 5 
79 5 79 80 

Angles

1 5 2 1 3 
2 6 2 1 4 
3 2 2 1 6 
4 6 3 1 4 
5 2 3 1 6 
6 7 4 1 6 
7 1 1 4 5 
8 2 1 6 7 
9 2 1 6 8 
10 3 1 6 9 
11 5 7 6 8 
12 4 7 6 9 
13 4 8 6 9 
14 8 6 9 10 
15 4 9 10 11 
16 4 9 10 12 
17 3 9 10 13 
18 5 11 10 12 
19 2 11 10 13 
20 2 12 10 13 
21 2 10 13 14 
22 2 10 13 15 
23 3 10 13 16 
24 5 14 13 15 
25 4 14 13 16 
26 4 15 13 16 
27 8 13 16 17 
28 4 16 17 18 
29 4 16 17 19 
30 3 16 17 20 
31 5 18 17 19 
32 2 18 17 20 
33 2 19 17 20 
34 2 17 20 21 
35 2 17 20 22 
36 3 17 20 23 
37 5 21 20 22 
38 4 21 20 23 
39 4 22 20 23 
40 8 20 23 24 
41 4 23 24 25 
42 4 23 24 26 
43 3 23 24 27 
44 5 25 24 26 
45 2 25 24 27 
46 2 26 24 27 
47 2 24 27 28 
48 2 24 27 29 
49 3 24 27 30 
50 5 28 27 29 
51 4 28 27 30 
52 4 29 27 30 
53 8 27 30 31 
54 4 30 31 32 
55 4 30 31 33 
56 3 30 31 34 
57 5 32 31 33 
58 2 32 31 34 
59 2 33 31 34 
60 2 31 34 35 
61 2 31 34 36 
62 3 31 34 37 
63 5 35 34 36 
64 4 35 34 37 
65 4 36 34 37 
66 8 34 37 38 
67 4 37 38 39 
68 4 37 38 40 
69 3 37 38 41 
70 5 39 38 40 
71 2 39 38 41 
72 2 40 38 41 
73 2 38 41 42 
74 2 38 41 43 
75 3 38 41 44 
76 5 42 41 43 
77 4 42 41 44 
78 4 43 41 44 
79 8 41 44 45 
80 4 44 45 46 
81 4 44 45 47 
82 3 44 45 48 
83 5 46 45 47 
84 2 46 45 48 
85 2 47 45 48 
86 2 45 48 49 
87 2 45 48 50 
88 3 45 48 51 
89 5 49 48 50 
90 4 49 48 51 
91 4 50 48 51 
92 8 48 51 52 
93 4 51 52 53 
94 4 51 52 54 
95 3 51 52 55 
96 5 53 52 54 
97 2 53 52 55 
98 2 54 52 55 
99 2 52 55 56 
100 2 52 55 57 
101 3 52 55 58 
102 5 56 55 57 
103 4 56 55 58 
104 4 57 55 58 
105 8 55 58 59 
106 4 58 59 60 
107 4 58 59 61 
108 3 58 59 62 
109 5 60 59 61 
110 2 60 59 62 
111 2 61 59 62 
112 2 59 62 63 
113 2 59 62 64 
114 3 59 62 65 
115 5 63 62 64 
116 4 63 62 65 
117 4 64 62 65 
118 8 62 65 66 
119 4 65 66 67 
120 4 65 66 68 
121 3 65 66 69 
122 5 67 66 68 
123 2 67 66 69 
124 2 68 66 69 
125 2 66 69 70 
126 2 66 69 71 
127 3 66 69 72 
128 5 70 69 71 
129 4 70 69 72 
130 4 71 69 72 
131 8 69 72 73 
132 4 72 73 74 
133 4 72 73 75 
134 3 72 73 76 
135 5 74 73 75 
136 2 74 73 76 
137 2 75 73 76 
138 2 73 76 77 
139 2 73 76 78 
140 7 73 76 79 
141 5 77 76 78 
142 6 77 76 79 
143 6 78 76 79 
144 1 76 79 80 

Dihedrals

1 3 6 1 4 5 
2 0 0 0 0 0 
3 0 0 0 0 0 
4 0 0 0 0 0 
5 0 0 0 0 0 
6 0 0 0 0 0 
7 3 6 1 4 5 
8 0 0 0 0 0 
9 0 0 0 0 0 
10 0 0 0 0 0 
11 0 0 0 0 0 
12 0 0 0 0 0 
13 0 0 0 0 0 
14 3 6 1 4 5 
15 0 0 0 0 0 
16 0 0 0 0 0 
17 0 0 0 0 0 
18 0 0 0 0 0 
19 0 0 0 0 0 
20 0 0 0 0 0 
21 0 0 0 0 0 
22 12 4 1 6 9 
23 13 4 1 6 9 
24 14 4 1 6 9 
25 1 1 6 9 10 
26 2 1 6 9 10 
27 3 1 6 9 10 
28 1 6 9 10 13 
29 2 6 9 10 13 
30 3 6 9 10 13 
31 4 9 10 13 16 
32 5 9 10 13 16 
33 1 10 13 16 17 
34 2 10 13 16 17 
35 3 10 13 16 17 
36 1 13 16 17 20 
37 2 13 16 17 20 
38 3 13 16 17 20 
39 4 16 17 20 23 
40 5 16 17 20 23 
41 1 17 20 23 24 
42 2 17 20 23 24 
43 3 17 20 23 24 
44 1 20 23 24 27 
45 2 20 23 24 27 
46 3 20 23 24 27 
47 4 23 24 27 30 
48 5 23 24 27 30 
49 1 24 27 30 31 
50 2 24 27 30 31 
51 3 24 27 30 31 
52 1 27 30 31 34 
53 2 27 30 31 34 
54 3 27 30 31 34 
55 4 30 31 34 37 
56 5 30 31 34 37 
57 1 31 34 37 38 
58 2 31 34 37 38 
59 3 31 34 37 38 
60 1 34 37 38 41 
61 2 34 37 38 41 
62 3 34 37 38 41 
63 4 37 38 41 44 
64 5 37 38 41 44 
65 1 38 41 44 45 
66 2 38 41 44 45 
67 3 38 41 44 45 
68 1 41 44 45 48 
69 2 41 44 45 48 
70 3 41 44 45 48 
71 4 44 45 48 51 
72 5 44 45 48 51 
73 1 45 48 51 52 
74 2 45 48 51 52 
75 3 45 48 51 52 
76 1 48 51 52 55 
77 2 48 51 52 55 
78 3 48 51 52 55 
79 4 51 52 55 58 
80 5 51 52 55 58 
81 1 52 55 58 59 
82 2 52 55 58 59 
83 3 52 55 58 59 
84 1 55 58 59 62 
85 2 55 58 59 62 
86 3 55 58 59 62 
87 4 58 59 62 65 
88 5 58 59 62 65 
89 1 59 62 65 66 
90 2 59 62 65 66 
91 3 59 62 65 66 
92 1 62 65 66 69 
93 2 62 65 66 69 
94 3 62 65 66 69 
95 4 65 66 69 72 
96 5 65 66 69 72 
97 1 66 69 72 73 
98 2 66 69 72 73 
99 3 66 69 72 73 
100 1 69 72 73 76 
101 2 69 72 73 76 
102 3 69 72 73 76 
103 12 72 73 76 79 
104 13 72 73 76 79 
105 14 72 73 76 79 
106 3 73 76 79 80 
107 0 0 0 0 0 
108 0 0 0 0 0 
109 0 0 0 0 0 
110 0 0 0 0 0 
111 0 0 0 0 0 
112 3 73 76 79 80 
113 0 0 0 0 0 
114 0 0 0 0 0 
115 0 0 0 0 0 
116 0 0 0 0 0 
117 0 0 0 0 0 
118 0 0 0 0 0 
119 3 73 76 79 80 
120 0 0 0 0 0 
121 0 0 0 0 0 
122 0 0 0 0 0 
123 0 0 0 0 0 
124 0 0 0 0 0 
125 0 0 0 0 0 
126 0 0 0 0 0 
